 #LAMMPS data file via lattice_ellipsoid_generator.f90, version 1.8 Nov 2020, by Bruno Morini
         365 atoms
 1 atom types
 
  -500000.00000000000         500000.00000000000      xlo xhi
  -500000.00000000000         500000.00000000000      ylo yhi
  -500000.00000000000         500000.00000000000      zlo zhi
 
 Masses
 
 1   1000.0000000000000     
 
 Atoms # hybrid
 
 1 1 0.0000000000000000 0.0000000000000000 0.0000000000000000   5.0000000000000000        15.278874081476022        1000.0000000000000      0 0 0
           2 1  -2.9492838518624724        2.2518084509218887       -2.0000001432952166        5.0000000000000000        15.278874081476022        1000.0000000000000      0 0 0
           3 1  0.42760493986542669       -4.0669018211010073      -0.66666660234637498        5.0000000000000000        15.278874081476022        1000.0000000000000      0 0 0
           4 1   2.9815561891237441        3.2393331526177609       0.66666684568131740        5.0000000000000000        15.278874081476022        1000.0000000000000      0 0 0
           5 1  -3.9390511802068029      -0.57967574152758317        2.0000001432952166        5.0000000000000000        15.278874081476022        1000.0000000000000      0 0 0
           6 1  -3.4697456048935500        2.6491863340703330       -5.8823530583655934        5.0000000000000000        15.278874081476022        1000.0000000000000      0 0 0
           7 1  0.56244334856196132       -5.3493345499064313       -5.0980392787394813        5.0000000000000000        15.278874081476022        1000.0000000000000      0 0 0
           8 1   4.6402681604352445        5.0414526964028541       -4.3137258029356351        5.0000000000000000        15.278874081476022        1000.0000000000000      0 0 0
           9 1  -8.3543829455450158       -1.2294415348799683       -3.5294121296402157        5.0000000000000000        15.278874081476022        1000.0000000000000      0 0 0
          10 1   7.6873252900447744       -4.0782292902634918       -2.7450979272337017        5.0000000000000000        15.278874081476022        1000.0000000000000      0 0 0
          11 1  -2.4772921059051902        7.6925516616003167       -1.9607842293235103        5.0000000000000000        15.278874081476022        1000.0000000000000      0 0 0
          12 1  -4.5410690471963671       -7.2774626195556706       -1.1764704974894247        5.0000000000000000        15.278874081476022        1000.0000000000000      0 0 0
          13 1   9.3788881325886848        2.8492733789534892      -0.39215685163996217        5.0000000000000000        15.278874081476022        1000.0000000000000      0 0 0
          14 1  -9.2250176033884017        3.1790360147365471       0.39215724831618282        5.0000000000000000        15.278874081476022        1000.0000000000000      0 0 0
          15 1   4.1656203883553324       -7.4317925504517701        1.1764708886174524        5.0000000000000000        15.278874081476022        1000.0000000000000      0 0 0
          16 1   2.8675732446911195        7.5978113647230563        1.9607846091120757        5.0000000000000000        15.278874081476022        1000.0000000000000      0 0 0
          17 1  -7.8884687904633841       -3.8021411868638175        2.7450982893478901        5.0000000000000000        15.278874081476022        1000.0000000000000      0 0 0
          18 1   8.2840929666354342       -1.5243660483827861        3.5294121296402157        5.0000000000000000        15.278874081476022        1000.0000000000000      0 0 0
          19 1  -4.3788249516173821        5.2013202024381560        4.3137258029356351        5.0000000000000000        15.278874081476022        1000.0000000000000      0 0 0
          20 1 -0.83489094470432024       -5.3245661673443800        5.0980392787394813        5.0000000000000000        15.278874081476022        1000.0000000000000      0 0 0
          21 1   3.6017853057237352        2.5238402492160605        5.8823530583655934        5.0000000000000000        15.278874081476022        1000.0000000000000      0 0 0
          22 1  -3.5869677399983719        2.7386866357444002       -9.4594592273984741        5.0000000000000000        15.278874081476022        1000.0000000000000      0 0 0
          23 1  0.59211443389704643       -5.6315328589841451       -8.9189188862764617        5.0000000000000000        15.278874081476022        1000.0000000000000      0 0 0
          24 1   4.9837590625595132        5.4146408559728858       -8.3783780542152400        5.0000000000000000        15.278874081476022        1000.0000000000000      0 0 0
          25 1  -9.1735651597988799       -1.3499934230808437       -7.8378377922577469        5.0000000000000000        15.278874081476022        1000.0000000000000      0 0 0
          26 1   8.6516322024619150       -4.5898070558246813       -7.2972977265517454        5.0000000000000000        15.278874081476022        1000.0000000000000      0 0 0
          27 1  -2.8661582471336771        8.9000688832136596       -6.7567569893986681        5.0000000000000000        15.278874081476022        1000.0000000000000      0 0 0
          28 1  -5.4207227774960067       -8.6871851042557608       -6.2162160021910946        5.0000000000000000        15.278874081476022        1000.0000000000000      0 0 0
          29 1   11.602926700737150        3.5249285095411489       -5.6756758869602475        5.0000000000000000        15.278874081476022        1000.0000000000000      0 0 0
          30 1  -11.894321911951014        4.0989057533151581       -5.1351349823442565        5.0000000000000000        15.278874081476022        1000.0000000000000      0 0 0
          31 1   5.6383367369172621       -10.059233691936180       -4.5945947027539127        5.0000000000000000        15.278874081476022        1000.0000000000000      0 0 0
          32 1   4.1139975833716989        10.900289173520857       -4.0540539945113592        5.0000000000000000        15.278874081476022        1000.0000000000000      0 0 0
          33 1  -12.156713246143958       -5.8593804904109570       -3.5135138370962116        5.0000000000000000        15.278874081476022        1000.0000000000000      0 0 0
          34 1   13.984890221844502       -2.5733767028448091       -2.9729730768393452        5.0000000000000000        15.278874081476022        1000.0000000000000      0 0 0
          35 1  -8.3560178184408223        9.9255678797883959       -2.4324321141739844        5.0000000000000000        15.278874081476022        1000.0000000000000      0 0 0
          36 1  -1.9083786836299985       -12.170797441019259       -1.8918919273109114        5.0000000000000000        15.278874081476022        1000.0000000000000      0 0 0
          37 1   11.375381148086515        7.9709483922017093       -1.3513511633936337        5.0000000000000000        15.278874081476022        1000.0000000000000      0 0 0
          38 1  -14.937090349622791       0.52977305765481975      -0.81081090214601770        5.0000000000000000        15.278874081476022        1000.0000000000000      0 0 0
          39 1   10.615052875103421       -8.8253225906453139      -0.27027010774330096        5.0000000000000000        15.278874081476022        1000.0000000000000      0 0 0
          40 1 -0.67244407788119487        12.482862296883566       0.27027010774330096        5.0000000000000000        15.278874081476022        1000.0000000000000      0 0 0
          41 1  -9.5952586716414316       -9.5543703995597262       0.81081030806204668        5.0000000000000000        15.278874081476022        1000.0000000000000      0 0 0
          42 1   14.732611477616555        1.6332733902541685        1.3513517539726521        5.0000000000000000        15.278874081476022        1000.0000000000000      0 0 0
          43 1  -12.077378834266124        7.0259240494586370        1.8918919273109114        5.0000000000000000        15.278874081476022        1000.0000000000000      0 0 0
          44 1   3.1701924356234219       -11.833252536210956        2.4324321141739844        5.0000000000000000        15.278874081476022        1000.0000000000000      0 0 0
          45 1   7.1416427568192571        10.345092982216944        2.9729725077431590        5.0000000000000000        15.278874081476022        1000.0000000000000      0 0 0
          46 1  -13.386831971592489       -3.5372007064741928        3.5135138370962116        5.0000000000000000        15.278874081476022        1000.0000000000000      0 0 0
          47 1   12.437061140432494       -4.8117307581975579        4.0540539945113592        5.0000000000000000        15.278874081476022        1000.0000000000000      0 0 0
          48 1  -5.1199525884565000        10.249929550978329        4.5945941733462021        5.0000000000000000        15.278874081476022        1000.0000000000000      0 0 0
          49 1  -4.3803255098142895       -10.085781769324937        5.1351354938006857        5.0000000000000000        15.278874081476022        1000.0000000000000      0 0 0
          50 1   10.943791081867207        4.7692241838910601        5.6756758869602475        5.0000000000000000        15.278874081476022        1000.0000000000000      0 0 0
          51 1  -11.355275822099717        2.5158791380629468        6.2162160021910946        5.0000000000000000        15.278874081476022        1000.0000000000000      0 0 0
          52 1   5.9601224206743506       -7.7619082423449006        6.7567561105889427        5.0000000000000000        15.278874081476022        1000.0000000000000      0 0 0
          53 1   1.7600519758193023        8.4199032677479817        7.2972977265517454        5.0000000000000000        15.278874081476022        1000.0000000000000      0 0 0
          54 1  -7.3783786371986775       -4.7388905798637389        7.8378377922577469        5.0000000000000000        15.278874081476022        1000.0000000000000      0 0 0
          55 1   8.1591761140151604      -0.57981246784728868        8.3783780542152400        5.0000000000000000        15.278874081476022        1000.0000000000000      0 0 0
          56 1  -4.5943230060855607        4.1592610044528548        8.9189183471539728        5.0000000000000000        15.278874081476022        1000.0000000000000      0 0 0
          57 1   1.1317420533440453E-002  -4.0540425203659165        9.4594596140232099        5.0000000000000000        15.278874081476022        1000.0000000000000      0 0 0
          58 1  -3.6298880136043059        2.7714567045733762       -12.923076911678823        5.0000000000000000        15.278874081476022        1000.0000000000000      0 0 0
          59 1  0.60293282507603951       -5.7344253438115578       -12.512820785351821        5.0000000000000000        15.278874081476022        1000.0000000000000      0 0 0
          60 1   5.1078773085810578        5.5494900165048966       -12.102564293976869        5.0000000000000000        15.278874081476022        1000.0000000000000      0 0 0
          61 1  -9.4661459326002699       -1.3930499787515558       -11.692307710862515        5.0000000000000000        15.278874081476022        1000.0000000000000      0 0 0
          62 1   8.9913678833816064       -4.7700413964566009       -11.282051801083856        5.0000000000000000        15.278874081476022        1000.0000000000000      0 0 0
          63 1  -3.0010444162198251        9.3189209118691192       -10.871795092236889        5.0000000000000000        15.278874081476022        1000.0000000000000      0 0 0
          64 1  -5.7205482868432735       -9.1676818582108908       -10.461538547503803        5.0000000000000000        15.278874081476022        1000.0000000000000      0 0 0
          65 1   12.346193603030413        3.7507303922614295       -10.051282162808143        5.0000000000000000        15.278874081476022        1000.0000000000000      0 0 0
          66 1  -12.766791769266415        4.3995678460529488       -9.6410258538089462        5.0000000000000000        15.278874081476022        1000.0000000000000      0 0 0
          67 1   6.1076983634915782       -10.896611540766074       -9.2307691909971297        5.0000000000000000        15.278874081476022        1000.0000000000000      0 0 0
          68 1   4.4998841993682905        11.922719453877734       -8.8205129046889859        5.0000000000000000        15.278874081476022        1000.0000000000000      0 0 0
          69 1  -13.434181052373139       -6.4751036541798834       -8.4102568726377989        5.0000000000000000        15.278874081476022        1000.0000000000000      0 0 0
          70 1   15.623639179513047       -2.8749248968297918       -8.0000005731808663        5.0000000000000000        15.278874081476022        1000.0000000000000      0 0 0
          71 1  -9.4438183605209467        11.217695105302321       -7.5897436808932692        5.0000000000000000        15.278874081476022        1000.0000000000000      0 0 0
          72 1  -2.1835609559795950       -13.925788588664927       -7.1794872951023914        5.0000000000000000        15.278874081476022        1000.0000000000000      0 0 0
          73 1   13.188076016387967        9.2411385562007613       -6.7692312635110961        5.0000000000000000        15.278874081476022        1000.0000000000000      0 0 0
          74 1  -17.563001422131482       0.62290611807362539       -6.3589741912154079        5.0000000000000000        15.278874081476022        1000.0000000000000      0 0 0
          75 1   12.671306716235032       -10.534885763788076       -5.9487174379530021        5.0000000000000000        15.278874081476022        1000.0000000000000      0 0 0
          76 1 -0.81587935667967759        15.145511716591741       -5.5384612643931428        5.0000000000000000        15.278874081476022        1000.0000000000000      0 0 0
          77 1  -11.848560480249024       -11.798070214038193       -5.1282048420406561        5.0000000000000000        15.278874081476022        1000.0000000000000      0 0 0
          78 1   18.542709483931535        2.0556650142666051       -4.7179483552940322        5.0000000000000000        15.278874081476022        1000.0000000000000      0 0 0
          79 1  -15.519881252584645        9.0285738680236207       -4.3076921140136539        5.0000000000000000        15.278874081476022        1000.0000000000000      0 0 0
          80 1   4.1674783721228152       -15.555782501521488       -3.8974357564374671        5.0000000000000000        15.278874081476022        1000.0000000000000      0 0 0
          81 1   9.6259915194601113        13.943819469233480       -3.4871791379186909        5.0000000000000000        15.278874081476022        1000.0000000000000      0 0 0
          82 1  -18.550016316438086       -4.9014681710244163       -3.0769229020367761        5.0000000000000000        15.278874081476022        1000.0000000000000      0 0 0
          83 1   17.773822338238666       -6.8764514920337385       -2.6666664093854999        5.0000000000000000        15.278874081476022        1000.0000000000000      0 0 0
          84 1  -7.5750382821322439        15.164907759668619       -2.2564100914604470        5.0000000000000000        15.278874081476022        1000.0000000000000      0 0 0
          85 1  -6.7408258489690898       -15.520878141453267       -1.8461538334864838        5.0000000000000000        15.278874081476022        1000.0000000000000      0 0 0
          86 1   17.619807632546966        7.6785834130080772       -1.4358973562955031        5.0000000000000000        15.278874081476022        1000.0000000000000      0 0 0
          87 1  -19.271245533360588        4.2697443339518451       -1.0256409546333067        5.0000000000000000        15.278874081476022        1000.0000000000000      0 0 0
          88 1   10.768273629080692       -14.023596486451000      -0.61538458866779311        5.0000000000000000        15.278874081476022        1000.0000000000000      0 0 0
          89 1   3.4318207356523485        16.417468929003430      -0.20512819649582925        5.0000000000000000        15.278874081476022        1000.0000000000000      0 0 0
          90 1  -15.839192293105921       -10.172993667203265       0.20512899113036959        5.0000000000000000        15.278874081476022        1000.0000000000000      0 0 0
          91 1   19.906439588085835       -1.4146038401837058       0.61538538254948127        5.0000000000000000        15.278874081476022        1000.0000000000000      0 0 0
          92 1  -13.504986322262457        12.226124045142800        1.0256417470071457        5.0000000000000000        15.278874081476022        1000.0000000000000      0 0 0
          93 1   4.6256590084718122E-002  -16.569692934576892        1.4358981464021725        5.0000000000000000        15.278874081476022        1000.0000000000000      0 0 0
          94 1   13.346700839142844        12.196223550972856        1.8461546205601023        5.0000000000000000        15.278874081476022        1000.0000000000000      0 0 0
          95 1  -19.632242742928664       -1.4718226848837836        2.2564108747262375        5.0000000000000000        15.278874081476022        1000.0000000000000      0 0 0
          96 1   15.576501738038566       -9.9083503298206175        2.6666673827252696        5.0000000000000000        15.278874081476022        1000.0000000000000      0 0 0
          97 1  -3.4287490564976117        15.963106259134815        3.0769236753144620        5.0000000000000000        15.278874081476022        1000.0000000000000      0 0 0
          98 1  -10.328785358755677       -13.590111798219116        3.4871799049852137        5.0000000000000000        15.278874081476022        1000.0000000000000      0 0 0
          99 1   18.461263411473201        4.1670189519944589        3.8974365164557523        5.0000000000000000        15.278874081476022        1000.0000000000000      0 0 0
         100 1  -16.813076932760922        7.2442004551799748        4.3076928661231042        5.0000000000000000        15.278874081476022        1000.0000000000000      0 0 0
         101 1   6.4478076388090599       -14.633080112050003        4.7179490986065815        5.0000000000000000        15.278874081476022        1000.0000000000000      0 0 0
         102 1   7.0152962886399415        14.230591315311507        5.1282055756362821        5.0000000000000000        15.278874081476022        1000.0000000000000      0 0 0
         103 1  -16.465454644393191       -6.4480316057250340        5.5384619873147320        5.0000000000000000        15.278874081476022        1000.0000000000000      0 0 0
         104 1   17.086967660257333       -4.4420824942655814        5.9487185048240265        5.0000000000000000        15.278874081476022        1000.0000000000000      0 0 0
         105 1  -8.8366291271308146        12.663698170822069        6.3589748897381586        5.0000000000000000        15.278874081476022        1000.0000000000000      0 0 0
         106 1  -3.6761355059667138       -14.028379494034553        6.7692312635110961        5.0000000000000000        15.278874081476022        1000.0000000000000      0 0 0
         107 1   13.773865790835318        8.0925328269615804        7.1794872951023914        5.0000000000000000        15.278874081476022        1000.0000000000000      0 0 0
         108 1  -16.309863976584690        1.7438117763990553        7.5897436808932692        5.0000000000000000        15.278874081476022        1000.0000000000000      0 0 0
         109 1   10.325729414800861       -10.185068435712246        8.0000005731808663        5.0000000000000000        15.278874081476022        1000.0000000000000      0 0 0
         110 1  0.62384109126647624        12.922387867342193        8.4102568726377989        5.0000000000000000        15.278874081476022        1000.0000000000000      0 0 0
         111 1  -10.568274053086235       -8.8685745816904316        8.8205129046889859        5.0000000000000000        15.278874081476022        1000.0000000000000      0 0 0
         112 1   14.415983968582491       0.56729838457500104        9.2307691909971297        5.0000000000000000        15.278874081476022        1000.0000000000000      0 0 0
         113 1  -10.615238760158160        7.3683162820600039        9.6410258538089462        5.0000000000000000        15.278874081476022        1000.0000000000000      0 0 0
         114 1   1.7632250493383215       -10.851824696589027        10.051282162808143        5.0000000000000000        15.278874081476022        1000.0000000000000      0 0 0
         115 1   7.0740313154451515        8.4864907430974910        10.461538547503803        5.0000000000000000        15.278874081476022        1000.0000000000000      0 0 0
         116 1  -11.294301141606972       -2.1242519166276730        10.871795092236889        5.0000000000000000        15.278874081476022        1000.0000000000000      0 0 0
         117 1   9.2513621867518552       -4.4112969554720500        11.282051801083856        5.0000000000000000        15.278874081476022        1000.0000000000000      0 0 0
         118 1  -2.9266846241175148        7.6302069197309415        11.692307710862515        5.0000000000000000        15.278874081476022        1000.0000000000000      0 0 0
         119 1  -3.5164160338283685       -6.3504526126361691        12.102564293976869        5.0000000000000000        15.278874081476022        1000.0000000000000      0 0 0
         120 1   6.3710439852331309        2.2245098592437262        12.512820785351821        5.0000000000000000        15.278874081476022        1000.0000000000000      0 0 0
         121 1  -4.6331032813210431        1.3872036815689084        12.923076911678823        5.0000000000000000        15.278874081476022        1000.0000000000000      0 0 0
         122 1  -3.6501041870417779        2.7868919602077415       -16.336633615348546        5.0000000000000000        15.278874081476022        1000.0000000000000      0 0 0
         123 1  0.60802040447897299       -5.7828127313503872       -16.006601165270492        5.0000000000000000        15.278874081476022        1000.0000000000000      0 0 0
         124 1   5.1660627242767898        5.6127059796148941       -15.676567671574126        5.0000000000000000        15.278874081476022        1000.0000000000000      0 0 0
         125 1  -9.6027597843897521       -1.4131542455447716       -15.346535149104243        5.0000000000000000        15.278874081476022        1000.0000000000000      0 0 0
         126 1   9.1492979082197383       -4.8538253952865977       -15.016501939056957        5.0000000000000000        15.278874081476022        1000.0000000000000      0 0 0
         127 1  -3.0634465355244105        9.5126935902705085       -14.686467946468657        5.0000000000000000        15.278874081476022        1000.0000000000000      0 0 0
         128 1  -5.8585428911862083       -9.3888303508606814       -14.356435340256951        5.0000000000000000        15.278874081476022        1000.0000000000000      0 0 0
         129 1   12.686422284144189        3.8540906744344907       -14.026402217624858        5.0000000000000000        15.278874081476022        1000.0000000000000      0 0 0
         130 1  -13.163872886760558        4.5364060861037911       -13.696369659549827        5.0000000000000000        15.278874081476022        1000.0000000000000      0 0 0
         131 1   6.3200268854912425       -11.275422229434842       -13.366336642239045        5.0000000000000000        15.278874081476022        1000.0000000000000      0 0 0
         132 1   4.6733436809266662        12.382310999705942       -13.036303461085394        5.0000000000000000        15.278874081476022        1000.0000000000000      0 0 0
         133 1  -14.004586080998338       -6.7500315914180939       -12.706270622742014        5.0000000000000000        15.278874081476022        1000.0000000000000      0 0 0
         134 1   16.350231996631347       -3.0086261271123131       -12.376236670285749        5.0000000000000000        15.278874081476022        1000.0000000000000      0 0 0
         135 1  -9.9225704947865960        11.786373500860595       -12.046203834337456        5.0000000000000000        15.278874081476022        1000.0000000000000      0 0 0
         136 1  -2.3037299353654412       -14.692173331559445       -11.716170971217448        5.0000000000000000        15.278874081476022        1000.0000000000000      0 0 0
         137 1   13.973167802321367        9.7912674729684657       -11.386138524070722        5.0000000000000000        15.278874081476022        1000.0000000000000      0 0 0
         138 1  -18.690450473099467       0.66289329878291392       -11.056105110366110        5.0000000000000000        15.278874081476022        1000.0000000000000      0 0 0
         139 1   13.546076111624124       -11.262166371578477       -10.726072458977566        5.0000000000000000        15.278874081476022        1000.0000000000000      0 0 0
         140 1 -0.87630633993010409        16.267243226679387       -10.396039332071199        5.0000000000000000        15.278874081476022        1000.0000000000000      0 0 0
         141 1  -12.788035363696560       -12.733541713526746       -10.066006816251864        5.0000000000000000        15.278874081476022        1000.0000000000000      0 0 0
         142 1   20.113786718608736        2.2298363514617061       -9.7359735874773374        5.0000000000000000        15.278874081476022        1000.0000000000000      0 0 0
         143 1  -16.922701799223404        9.8446541409831863       -9.4059407702562439        5.0000000000000000        15.278874081476022        1000.0000000000000      0 0 0
         144 1   4.5687563933055921       -17.053617178220865       -9.0759077478868502        5.0000000000000000        15.278874081476022        1000.0000000000000      0 0 0
         145 1   10.612089434280021        15.372240767490304       -8.7458746005982739        5.0000000000000000        15.278874081476022        1000.0000000000000      0 0 0
         146 1  -20.569469005462992       -5.4350678676119522       -8.4158421644607166        5.0000000000000000        15.278874081476022        1000.0000000000000      0 0 0
         147 1   19.828102957255453       -7.6712248817341013       -8.0858080832596535        5.0000000000000000        15.278874081476022        1000.0000000000000      0 0 0
         148 1  -8.5037580726015012        17.024165684511829       -7.7557750754539114        5.0000000000000000        15.278874081476022        1000.0000000000000      0 0 0
         149 1  -7.6168547277369001       -17.537951090731219       -7.4257424641246619        5.0000000000000000        15.278874081476022        1000.0000000000000      0 0 0
         150 1   20.045558385000142        8.7357078652338025       -7.0957093980295607        5.0000000000000000        15.278874081476022        1000.0000000000000      0 0 0
         151 1  -22.080399934880521        4.8921416288398216       -6.7656763519591934        5.0000000000000000        15.278874081476022        1000.0000000000000      0 0 0
         152 1   12.429613978793538       -16.187171400457096       -6.4356434710095467        5.0000000000000000        15.278874081476022        1000.0000000000000      0 0 0
         153 1   3.9920333756684072        19.097467192184951       -6.1056107159116300        5.0000000000000000        15.278874081476022        1000.0000000000000      0 0 0
         154 1  -18.574387155635456       -11.929719610052691       -5.7755776788250346        5.0000000000000000        15.278874081476022        1000.0000000000000      0 0 0
         155 1   23.542476066814437       -1.6729901348848424       -5.4455449851056841        5.0000000000000000        15.278874081476022        1000.0000000000000      0 0 0
         156 1  -16.114152930387458        14.588214153504836       -5.1155122078555504        5.0000000000000000        15.278874081476022        1000.0000000000000      0 0 0
         157 1   5.5710017882019923E-002  -19.956029789360183       -4.7854778681799859        5.0000000000000000        15.278874081476022        1000.0000000000000      0 0 0
         158 1   16.232555662087861        14.833319488050217       -4.4554450156802829        5.0000000000000000        15.278874081476022        1000.0000000000000      0 0 0
         159 1  -24.124610383022475       -1.8086139872381448       -4.1254124161997554        5.0000000000000000        15.278874081476022        1000.0000000000000      0 0 0
         160 1   19.350005848135194       -12.308709622469054       -3.7953793413662074        5.0000000000000000        15.278874081476022        1000.0000000000000      0 0 0
         161 1  -4.3085646600975966        20.059232787291297       -3.4653465273911523        5.0000000000000000        15.278874081476022        1000.0000000000000      0 0 0
         162 1  -13.137757942960649       -17.286020865118044       -3.1353136471979370        5.0000000000000000        15.278874081476022        1000.0000000000000      0 0 0
         163 1   23.786224190787252        5.3689525353828413       -2.8052808007160217        5.0000000000000000        15.278874081476022        1000.0000000000000      0 0 0
         164 1  -21.960987162033057        9.4622652255524358       -2.4752477642892807        5.0000000000000000        15.278874081476022        1000.0000000000000      0 0 0
         165 1   8.5455860666440131       -19.393916897421136       -2.1452148919976093        5.0000000000000000        15.278874081476022        1000.0000000000000      0 0 0
         166 1   9.4433706231518180        19.155961836523556       -1.8151820090207900        5.0000000000000000        15.278874081476022        1000.0000000000000      0 0 0
         167 1  -22.536178578538895       -8.8253859298178874       -1.4851481137474611        5.0000000000000000        15.278874081476022        1000.0000000000000      0 0 0